<?xml version="1.0" encoding="UTF-8"?>

<!-- generated on 2025-06-19 23:06:24 by Eclipse SUMO GUI Version 1.22.0
<sumoConfiguration xmlns:xsi="http://www.w3.org/2001/XMLSchema-instance" xsi:noNamespaceSchemaLocation="http://sumo.dlr.de/xsd/sumoConfiguration.xsd">

    <input>
        <net-file value="network/region_1.net.xml"/>
        <route-files value="routes/generated_routes.rou.xml"/>
    </input>

    <output>
        <queue-output value="output/queue.xml"/>
        <summary-output value="output/summary.xml"/>
        <tripinfo-output value="output/tripinfo.xml"/>
    </output>

    <time>
        <begin value="0"/>
        <end value="86400"/>
        <step-length value="0.4"/>
    </time>

    <processing>
        <time-to-teleport value="300"/>
    </processing>

    <report>
        <verbose value="true"/>
        <no-warnings value="false"/>
    </report>

</sumoConfiguration>
-->

<tripinfos xmlns:xsi="http://www.w3.org/2001/XMLSchema-instance" xsi:noNamespaceSchemaLocation="http://sumo.dlr.de/xsd/tripinfo_file.xsd">
    <tripinfo id="5" depart="25240.00" departLane="1162554504_0" departPos="5.10" departSpeed="0.00" departDelay="0.00" arrival="25326.80" arrivalLane="1345417678_0" arrivalPos="5.61" arrivalSpeed="23.00" duration="86.80" routeLength="1283.93" waitingTime="0.00" waitingCount="0" stopTime="0.00" timeLoss="23.60" rerouteNo="0" devices="tripinfo_5" vType="DEFAULT_VEHTYPE" speedFactor="0.83" vaporized=""/>
    <tripinfo id="0" depart="25200.00" departLane="35112983_1" departPos="5.10" departSpeed="0.00" departDelay="0.00" arrival="25329.20" arrivalLane="-1162554504_0" arrivalPos="100.68" arrivalSpeed="21.68" duration="129.20" routeLength="1339.58" waitingTime="29.60" waitingCount="2" stopTime="0.00" timeLoss="76.12" rerouteNo="0" devices="tripinfo_0" vType="DEFAULT_VEHTYPE" speedFactor="1.06" vaporized=""/>
    <tripinfo id="2" depart="25216.00" departLane="408845370_0" departPos="5.10" departSpeed="0.00" departDelay="0.00" arrival="25335.60" arrivalLane="326849846#1_0" arrivalPos="137.07" arrivalSpeed="24.17" duration="119.60" routeLength="860.23" waitingTime="46.40" waitingCount="1" stopTime="0.00" timeLoss="83.44" rerouteNo="0" devices="tripinfo_2" vType="DEFAULT_VEHTYPE" speedFactor="1.01" vaporized=""/>
    <tripinfo id="4" depart="25232.00" departLane="1345417676_0" departPos="5.10" departSpeed="0.00" departDelay="0.00" arrival="25337.60" arrivalLane="-1162554504_0" arrivalPos="100.68" arrivalSpeed="21.39" duration="105.60" routeLength="877.45" waitingTime="36.80" waitingCount="1" stopTime="0.00" timeLoss="71.44" rerouteNo="0" devices="tripinfo_4" vType="DEFAULT_VEHTYPE" speedFactor="1.03" vaporized=""/>
    <tripinfo id="9" depart="25272.00" departLane="673254417#1_0" departPos="5.10" departSpeed="0.00" departDelay="0.00" arrival="25343.60" arrivalLane="-1056903938_1" arrivalPos="51.44" arrivalSpeed="12.14" duration="71.60" routeLength="647.94" waitingTime="6.00" waitingCount="2" stopTime="0.00" timeLoss="26.10" rerouteNo="0" devices="tripinfo_9" vType="DEFAULT_VEHTYPE" speedFactor="0.89" vaporized=""/>
    <tripinfo id="3" depart="25224.00" departLane="747226804_0" departPos="5.10" departSpeed="0.00" departDelay="0.00" arrival="25352.40" arrivalLane="-306641038_0" arrivalPos="240.45" arrivalSpeed="29.80" duration="128.40" routeLength="754.85" waitingTime="76.00" waitingCount="2" stopTime="0.00" timeLoss="98.94" rerouteNo="0" devices="tripinfo_3" vType="DEFAULT_VEHTYPE" speedFactor="1.08" vaporized=""/>
    <tripinfo id="18" depart="25344.00" departLane="747226800_0" departPos="5.10" departSpeed="0.00" departDelay="0.00" arrival="25391.60" arrivalLane="326770986_0" arrivalPos="56.77" arrivalSpeed="19.40" duration="47.60" routeLength="812.16" waitingTime="0.00" waitingCount="0" stopTime="0.00" timeLoss="20.49" rerouteNo="0" devices="tripinfo_18" vType="DEFAULT_VEHTYPE" speedFactor="1.12" vaporized=""/>
    <tripinfo id="6" depart="25248.00" departLane="-1267462153_0" departPos="5.10" departSpeed="0.00" departDelay="0.00" arrival="25392.00" arrivalLane="-673254417#1_0" arrivalPos="136.53" arrivalSpeed="23.61" duration="144.00" routeLength="629.70" waitingTime="85.60" waitingCount="3" stopTime="0.00" timeLoss="120.05" rerouteNo="0" devices="tripinfo_6" vType="DEFAULT_VEHTYPE" speedFactor="1.05" vaporized=""/>
    <tripinfo id="14" depart="25312.00" departLane="747226803#0_0" departPos="3.73" departSpeed="0.00" departDelay="0.00" arrival="25396.40" arrivalLane="306641038_0" arrivalPos="240.49" arrivalSpeed="30.27" duration="84.40" routeLength="399.70" waitingTime="53.20" waitingCount="2" stopTime="0.00" timeLoss="69.94" rerouteNo="0" devices="tripinfo_14" vType="DEFAULT_VEHTYPE" speedFactor="1.09" vaporized=""/>
    <tripinfo id="16" depart="25328.00" departLane="193616433#2_0" departPos="5.10" departSpeed="0.00" departDelay="0.00" arrival="25417.60" arrivalLane="928038825#0_0" arrivalPos="124.05" arrivalSpeed="22.74" duration="89.60" routeLength="1250.11" waitingTime="5.60" waitingCount="1" stopTime="0.00" timeLoss="41.28" rerouteNo="0" devices="tripinfo_16" vType="DEFAULT_VEHTYPE" speedFactor="1.05" vaporized=""/>
    <tripinfo id="10" depart="25280.00" departLane="673254417#0_0" departPos="5.10" departSpeed="0.00" departDelay="0.00" arrival="25428.40" arrivalLane="327074920_1" arrivalPos="163.44" arrivalSpeed="5.79" duration="148.40" routeLength="1169.33" waitingTime="49.60" waitingCount="3" stopTime="0.00" timeLoss="98.07" rerouteNo="0" devices="tripinfo_10" vType="DEFAULT_VEHTYPE" speedFactor="0.94" vaporized=""/>
    <tripinfo id="12" depart="25296.00" departLane="749986989_0" departPos="5.10" departSpeed="0.00" departDelay="0.00" arrival="25431.20" arrivalLane="1267462153_0" arrivalPos="27.26" arrivalSpeed="11.58" duration="135.20" routeLength="1101.04" waitingTime="50.80" waitingCount="2" stopTime="0.00" timeLoss="83.02" rerouteNo="0" devices="tripinfo_12" vType="DEFAULT_VEHTYPE" speedFactor="0.86" vaporized=""/>
    <tripinfo id="22" depart="25376.00" departLane="-306641038_0" departPos="5.10" departSpeed="0.00" departDelay="0.00" arrival="25432.40" arrivalLane="1056903939_0" arrivalPos="104.50" arrivalSpeed="21.54" duration="56.40" routeLength="691.56" waitingTime="0.00" waitingCount="0" stopTime="0.00" timeLoss="14.60" rerouteNo="0" devices="tripinfo_22" vType="DEFAULT_VEHTYPE" speedFactor="0.93" vaporized=""/>
    <tripinfo id="1" depart="25208.00" departLane="1267462152#1_0" departPos="5.10" departSpeed="0.00" departDelay="0.00" arrival="25447.60" arrivalLane="-747226804_0" arrivalPos="304.49" arrivalSpeed="11.84" duration="239.60" routeLength="1505.37" waitingTime="114.40" waitingCount="4" stopTime="0.00" timeLoss="160.01" rerouteNo="0" devices="tripinfo_1" vType="DEFAULT_VEHTYPE" speedFactor="0.94" vaporized=""/>
    <tripinfo id="29" depart="25432.00" departLane="-747226804_0" departPos="5.10" departSpeed="0.00" departDelay="0.00" arrival="25468.00" arrivalLane="1267653586#1_1" arrivalPos="171.81" arrivalSpeed="13.91" duration="36.00" routeLength="478.75" waitingTime="0.00" waitingCount="0" stopTime="0.00" timeLoss="8.87" rerouteNo="0" devices="tripinfo_29" vType="DEFAULT_VEHTYPE" speedFactor="1.01" vaporized=""/>
    <tripinfo id="21" depart="25372.80" departLane="1162554504_0" departPos="5.10" departSpeed="0.00" departDelay="4.80" arrival="25478.40" arrivalLane="1267462152#0_0" arrivalPos="66.60" arrivalSpeed="18.36" duration="105.60" routeLength="734.46" waitingTime="40.80" waitingCount="2" stopTime="0.00" timeLoss="71.12" rerouteNo="0" devices="tripinfo_21" vType="DEFAULT_VEHTYPE" speedFactor="0.99" vaporized=""/>
    <tripinfo id="15" depart="25320.00" departLane="673254417#0_0" departPos="5.10" departSpeed="0.00" departDelay="0.00" arrival="25485.20" arrivalLane="35112848_1" arrivalPos="26.95" arrivalSpeed="12.21" duration="165.20" routeLength="860.12" waitingTime="80.00" waitingCount="2" stopTime="0.00" timeLoss="125.87" rerouteNo="0" devices="tripinfo_15" vType="DEFAULT_VEHTYPE" speedFactor="1.03" vaporized=""/>
    <tripinfo id="32" depart="25456.00" departLane="747226800_0" departPos="5.10" departSpeed="0.00" departDelay="0.00" arrival="25490.40" arrivalLane="408845370_0" arrivalPos="171.86" arrivalSpeed="24.23" duration="34.40" routeLength="479.10" waitingTime="0.80" waitingCount="1" stopTime="0.00" timeLoss="14.74" rerouteNo="0" devices="tripinfo_32" vType="DEFAULT_VEHTYPE" speedFactor="0.89" vaporized=""/>
    <tripinfo id="33" depart="25464.00" departLane="1162554504_0" departPos="5.10" departSpeed="0.00" departDelay="0.00" arrival="25503.60" arrivalLane="-1162554504_0" arrivalPos="100.68" arrivalSpeed="18.26" duration="39.60" routeLength="483.55" waitingTime="0.00" waitingCount="0" stopTime="0.00" timeLoss="13.47" rerouteNo="0" devices="tripinfo_33" vType="DEFAULT_VEHTYPE" speedFactor="0.83" vaporized=""/>
    <tripinfo id="27" depart="25416.00" departLane="35112983_1" departPos="5.10" departSpeed="0.00" departDelay="0.00" arrival="25516.40" arrivalLane="306641038_0" arrivalPos="240.49" arrivalSpeed="31.96" duration="100.40" routeLength="1587.59" waitingTime="5.60" waitingCount="1" stopTime="0.00" timeLoss="46.87" rerouteNo="0" devices="tripinfo_27" vType="DEFAULT_VEHTYPE" speedFactor="1.16" vaporized=""/>
    <tripinfo id="24" depart="25392.00" departLane="35112983_1" departPos="5.10" departSpeed="0.00" departDelay="0.00" arrival="25517.60" arrivalLane="1267653586#0_2" arrivalPos="154.23" arrivalSpeed="12.64" duration="125.60" routeLength="1502.84" waitingTime="17.20" waitingCount="2" stopTime="0.00" timeLoss="55.95" rerouteNo="0" devices="tripinfo_24" vType="DEFAULT_VEHTYPE" speedFactor="0.94" vaporized=""/>
    <tripinfo id="26" depart="25408.00" departLane="1267462152#0_0" departPos="5.10" departSpeed="0.00" departDelay="0.00" arrival="25525.20" arrivalLane="747226805#1_1" arrivalPos="85.07" arrivalSpeed="7.73" duration="117.20" routeLength="1097.87" waitingTime="19.60" waitingCount="2" stopTime="0.00" timeLoss="58.71" rerouteNo="0" devices="tripinfo_26" vType="DEFAULT_VEHTYPE" speedFactor="0.94" vaporized=""/>
    <tripinfo id="28" depart="25424.00" departLane="-747226804_0" departPos="5.10" departSpeed="0.00" departDelay="0.00" arrival="25528.40" arrivalLane="35112848_1" arrivalPos="26.95" arrivalSpeed="12.19" duration="104.40" routeLength="1083.04" waitingTime="20.80" waitingCount="1" stopTime="0.00" timeLoss="52.10" rerouteNo="0" devices="tripinfo_28" vType="DEFAULT_VEHTYPE" speedFactor="1.02" vaporized=""/>
    <tripinfo id="37" depart="25496.00" departLane="35113196_0" departPos="5.10" departSpeed="0.00" departDelay="0.00" arrival="25531.60" arrivalLane="1267653586#2_1" arrivalPos="123.57" arrivalSpeed="15.55" duration="35.60" routeLength="400.99" waitingTime="0.00" waitingCount="0" stopTime="0.00" timeLoss="10.96" rerouteNo="0" devices="tripinfo_37" vType="DEFAULT_VEHTYPE" speedFactor="1.13" vaporized=""/>
    <tripinfo id="30" depart="25440.00" departLane="928038825#1_0" departPos="5.10" departSpeed="0.00" departDelay="0.00" arrival="25536.80" arrivalLane="326849845_1" arrivalPos="162.52" arrivalSpeed="11.81" duration="96.80" routeLength="599.60" waitingTime="45.60" waitingCount="2" stopTime="0.00" timeLoss="71.74" rerouteNo="0" devices="tripinfo_30" vType="DEFAULT_VEHTYPE" speedFactor="0.97" vaporized=""/>
    <tripinfo id="34" depart="25472.00" departLane="1267653586#1_1" departPos="5.10" departSpeed="0.00" departDelay="0.00" arrival="25538.00" arrivalLane="1125370519_1" arrivalPos="30.65" arrivalSpeed="11.62" duration="66.00" routeLength="876.45" waitingTime="0.00" waitingCount="0" stopTime="0.00" timeLoss="17.91" rerouteNo="0" devices="tripinfo_34" vType="DEFAULT_VEHTYPE" speedFactor="0.87" vaporized=""/>
    <tripinfo id="36" depart="25488.00" departLane="747226803#1_0" departPos="5.10" departSpeed="0.00" departDelay="0.00" arrival="25576.40" arrivalLane="1267462152#1_1" arrivalPos="48.21" arrivalSpeed="6.93" duration="88.40" routeLength="732.28" waitingTime="23.60" waitingCount="1" stopTime="0.00" timeLoss="53.80" rerouteNo="0" devices="tripinfo_36" vType="DEFAULT_VEHTYPE" speedFactor="0.95" vaporized=""/>
    <tripinfo id="35" depart="25480.00" departLane="1056903939_0" departPos="5.10" departSpeed="0.00" departDelay="0.00" arrival="25582.00" arrivalLane="749986989_1" arrivalPos="138.45" arrivalSpeed="10.30" duration="102.00" routeLength="1385.25" waitingTime="0.00" waitingCount="0" stopTime="0.00" timeLoss="38.27" rerouteNo="0" devices="tripinfo_35" vType="DEFAULT_VEHTYPE" speedFactor="0.92" vaporized=""/>
    <tripinfo id="39" depart="25512.00" departLane="1267462152#0_0" departPos="5.10" departSpeed="0.00" departDelay="0.00" arrival="25595.20" arrivalLane="1056903939_0" arrivalPos="104.50" arrivalSpeed="20.99" duration="83.20" routeLength="897.46" waitingTime="16.80" waitingCount="1" stopTime="0.00" timeLoss="42.67" rerouteNo="0" devices="tripinfo_39" vType="DEFAULT_VEHTYPE" speedFactor="1.18" vaporized=""/>
    <tripinfo id="40" depart="25520.00" departLane="326849845_0" departPos="5.10" departSpeed="0.00" departDelay="0.00" arrival="25610.00" arrivalLane="1125370519_1" arrivalPos="30.65" arrivalSpeed="13.21" duration="90.00" routeLength="1027.02" waitingTime="24.80" waitingCount="1" stopTime="0.00" timeLoss="53.74" rerouteNo="0" devices="tripinfo_40" vType="DEFAULT_VEHTYPE" speedFactor="1.15" vaporized=""/>
    <tripinfo id="38" depart="25504.00" departLane="747226805#0_0" departPos="5.10" departSpeed="0.00" departDelay="0.00" arrival="25620.80" arrivalLane="1336695528_0" arrivalPos="10.81" arrivalSpeed="9.66" duration="116.80" routeLength="523.43" waitingTime="68.80" waitingCount="2" stopTime="0.00" timeLoss="94.10" rerouteNo="0" devices="tripinfo_38" vType="DEFAULT_VEHTYPE" speedFactor="0.93" vaporized=""/>
    <tripinfo id="47" depart="25576.00" departLane="-1345417678_0" departPos="5.10" departSpeed="0.00" departDelay="0.00" arrival="25623.60" arrivalLane="1267653586#1_1" arrivalPos="171.81" arrivalSpeed="13.11" duration="47.60" routeLength="646.21" waitingTime="0.00" waitingCount="0" stopTime="0.00" timeLoss="10.11" rerouteNo="0" devices="tripinfo_47" vType="DEFAULT_VEHTYPE" speedFactor="0.97" vaporized=""/>
    <tripinfo id="53" depart="25624.00" departLane="-35112848_1" departPos="5.10" departSpeed="0.00" departDelay="0.00" arrival="25640.00" arrivalLane="1336695527_0" arrivalPos="16.79" arrivalSpeed="13.52" duration="16.00" routeLength="130.42" waitingTime="0.00" waitingCount="0" stopTime="0.00" timeLoss="7.98" rerouteNo="0" devices="tripinfo_53" vType="DEFAULT_VEHTYPE" speedFactor="1.03" vaporized=""/>
    <tripinfo id="23" depart="25384.00" departLane="-35112848_1" departPos="5.10" departSpeed="0.00" departDelay="0.00" arrival="25663.60" arrivalLane="1162554504_0" arrivalPos="100.63" arrivalSpeed="13.10" duration="279.60" routeLength="1652.69" waitingTime="124.80" waitingCount="5" stopTime="0.00" timeLoss="200.51" rerouteNo="0" devices="tripinfo_23" vType="DEFAULT_VEHTYPE" speedFactor="0.88" vaporized=""/>
    <tripinfo id="43" depart="25544.00" departLane="928038825#1_0" departPos="5.10" departSpeed="0.00" departDelay="0.00" arrival="25692.80" arrivalLane="1345417678_0" arrivalPos="5.61" arrivalSpeed="27.12" duration="148.80" routeLength="1400.66" waitingTime="54.80" waitingCount="3" stopTime="0.00" timeLoss="94.21" rerouteNo="0" devices="tripinfo_43" vType="DEFAULT_VEHTYPE" speedFactor="0.99" vaporized=""/>
    <tripinfo id="59" depart="25672.00" departLane="326849846#1_0" departPos="5.10" departSpeed="0.00" departDelay="0.00" arrival="25699.20" arrivalLane="-35113249_1" arrivalPos="57.21" arrivalSpeed="14.89" duration="27.20" routeLength="417.80" waitingTime="0.00" waitingCount="0" stopTime="0.00" timeLoss="10.42" rerouteNo="0" devices="tripinfo_59" vType="DEFAULT_VEHTYPE" speedFactor="1.09" vaporized=""/>
    <tripinfo id="55" depart="25640.00" departLane="747226803#1_0" departPos="5.10" departSpeed="0.00" departDelay="0.00" arrival="25705.20" arrivalLane="1125370519_1" arrivalPos="30.65" arrivalSpeed="11.39" duration="65.20" routeLength="812.84" waitingTime="0.00" waitingCount="0" stopTime="0.00" timeLoss="25.90" rerouteNo="0" devices="tripinfo_55" vType="DEFAULT_VEHTYPE" speedFactor="0.96" vaporized=""/>
    <tripinfo id="49" depart="25592.00" departLane="928038825#0_0" departPos="5.10" departSpeed="0.00" departDelay="0.00" arrival="25706.40" arrivalLane="747226800_0" arrivalPos="125.95" arrivalSpeed="23.42" duration="114.40" routeLength="561.33" waitingTime="65.20" waitingCount="2" stopTime="0.00" timeLoss="95.08" rerouteNo="0" devices="tripinfo_49" vType="DEFAULT_VEHTYPE" speedFactor="1.18" vaporized=""/>
    <tripinfo id="42" depart="25536.00" departLane="1336695529_0" departPos="5.10" departSpeed="0.00" departDelay="0.00" arrival="25713.20" arrivalLane="-747226804_0" arrivalPos="304.49" arrivalSpeed="25.98" duration="177.20" routeLength="1500.53" waitingTime="72.40" waitingCount="3" stopTime="0.00" timeLoss="114.37" rerouteNo="0" devices="tripinfo_42" vType="DEFAULT_VEHTYPE" speedFactor="1.17" vaporized=""/>
    <tripinfo id="41" depart="25528.00" departLane="326849846#0_0" departPos="5.10" departSpeed="0.00" departDelay="0.00" arrival="25743.20" arrivalLane="747226804_0" arrivalPos="304.57" arrivalSpeed="5.42" duration="215.20" routeLength="1395.60" waitingTime="94.40" waitingCount="4" stopTime="0.00" timeLoss="154.69" rerouteNo="0" devices="tripinfo_41" vType="DEFAULT_VEHTYPE" speedFactor="1.01" vaporized=""/>
    <tripinfo id="45" depart="25560.00" departLane="-35112848_1" departPos="5.10" departSpeed="0.00" departDelay="0.00" arrival="25748.00" arrivalLane="326770986_0" arrivalPos="56.77" arrivalSpeed="17.26" duration="188.00" routeLength="1125.99" waitingTime="95.60" waitingCount="3" stopTime="0.00" timeLoss="131.91" rerouteNo="0" devices="tripinfo_45" vType="DEFAULT_VEHTYPE" speedFactor="1.02" vaporized=""/>
    <tripinfo id="50" depart="25600.00" departLane="-1162554504_0" departPos="5.10" departSpeed="0.00" departDelay="0.00" arrival="25752.80" arrivalLane="35112848_1" arrivalPos="26.95" arrivalSpeed="12.84" duration="152.80" routeLength="1151.89" waitingTime="52.80" waitingCount="3" stopTime="0.00" timeLoss="103.72" rerouteNo="0" devices="tripinfo_50" vType="DEFAULT_VEHTYPE" speedFactor="1.10" vaporized=""/>
    <tripinfo id="57" depart="25656.00" departLane="747226805#0_0" departPos="5.10" departSpeed="0.00" departDelay="0.00" arrival="25762.40" arrivalLane="747226803#1_0" arrivalPos="112.47" arrivalSpeed="22.66" duration="106.40" routeLength="1086.43" waitingTime="18.80" waitingCount="2" stopTime="0.00" timeLoss="65.88" rerouteNo="0" devices="tripinfo_57" vType="DEFAULT_VEHTYPE" speedFactor="1.04" vaporized=""/>
    <tripinfo id="70" depart="25760.00" departLane="193092895_0" departPos="5.10" departSpeed="0.00" departDelay="0.00" arrival="25769.20" arrivalLane="193616433#0_0" arrivalPos="62.58" arrivalSpeed="18.93" duration="9.20" routeLength="86.46" waitingTime="0.00" waitingCount="0" stopTime="0.00" timeLoss="5.70" rerouteNo="0" devices="tripinfo_70" vType="DEFAULT_VEHTYPE" speedFactor="1.00" vaporized=""/>
    <tripinfo id="66" depart="25728.00" departLane="747226803#1_0" departPos="5.10" departSpeed="0.00" departDelay="0.00" arrival="25788.00" arrivalLane="749986989_0" arrivalPos="138.45" arrivalSpeed="5.99" duration="60.00" routeLength="676.17" waitingTime="0.00" waitingCount="0" stopTime="0.00" timeLoss="27.88" rerouteNo="0" devices="tripinfo_66" vType="DEFAULT_VEHTYPE" speedFactor="0.85" vaporized=""/>
    <tripinfo id="65" depart="25720.00" departLane="1267653586#0_1" departPos="5.10" departSpeed="0.00" departDelay="0.00" arrival="25788.40" arrivalLane="-1345417678_0" arrivalPos="5.61" arrivalSpeed="7.29" duration="68.40" routeLength="615.00" waitingTime="14.00" waitingCount="1" stopTime="0.00" timeLoss="29.49" rerouteNo="0" devices="tripinfo_65" vType="DEFAULT_VEHTYPE" speedFactor="0.85" vaporized=""/>
    <tripinfo id="63" depart="25704.00" departLane="-1267462153_0" departPos="5.10" departSpeed="0.00" departDelay="0.00" arrival="25797.20" arrivalLane="747226805#1_0" arrivalPos="85.07" arrivalSpeed="24.84" duration="93.20" routeLength="833.07" waitingTime="30.40" waitingCount="1" stopTime="0.00" timeLoss="47.73" rerouteNo="0" devices="tripinfo_63" vType="DEFAULT_VEHTYPE" speedFactor="0.90" vaporized=""/>
    <tripinfo id="58" depart="25664.00" departLane="1267653586#0_1" departPos="5.10" departSpeed="0.00" departDelay="0.00" arrival="25802.80" arrivalLane="326849845_0" arrivalPos="162.52" arrivalSpeed="28.84" duration="138.80" routeLength="1055.00" waitingTime="52.80" waitingCount="2" stopTime="0.00" timeLoss="91.09" rerouteNo="0" devices="tripinfo_58" vType="DEFAULT_VEHTYPE" speedFactor="1.04" vaporized=""/>
    <tripinfo id="52" depart="25616.00" departLane="1267462152#0_0" departPos="5.10" departSpeed="0.00" departDelay="0.00" arrival="25804.00" arrivalLane="326849845_0" arrivalPos="162.52" arrivalSpeed="24.68" duration="188.00" routeLength="1603.04" waitingTime="58.00" waitingCount="2" stopTime="0.00" timeLoss="116.54" rerouteNo="0" devices="tripinfo_52" vType="DEFAULT_VEHTYPE" speedFactor="0.90" vaporized=""/>
    <tripinfo id="69" depart="25752.00" departLane="58871347_1" departPos="2.30" departSpeed="0.00" departDelay="0.00" arrival="25808.00" arrivalLane="-35113196_0" arrivalPos="91.35" arrivalSpeed="20.96" duration="56.00" routeLength="265.06" waitingTime="32.40" waitingCount="1" stopTime="0.00" timeLoss="39.97" rerouteNo="0" devices="tripinfo_69" vType="DEFAULT_VEHTYPE" speedFactor="1.10" vaporized=""/>
    <tripinfo id="76" depart="25808.00" departLane="1345417677_0" departPos="5.10" departSpeed="0.00" departDelay="0.00" arrival="25815.20" arrivalLane="1345417678_0" arrivalPos="5.61" arrivalSpeed="14.95" duration="7.20" routeLength="58.74" waitingTime="0.00" waitingCount="0" stopTime="0.00" timeLoss="5.10" rerouteNo="0" devices="tripinfo_76" vType="DEFAULT_VEHTYPE" speedFactor="1.02" vaporized=""/>
    <tripinfo id="62" depart="25696.00" departLane="-1162554504_0" departPos="5.10" departSpeed="0.00" departDelay="0.00" arrival="25841.60" arrivalLane="1267462152#1_0" arrivalPos="48.21" arrivalSpeed="23.53" duration="145.60" routeLength="1176.78" waitingTime="48.40" waitingCount="2" stopTime="0.00" timeLoss="91.97" rerouteNo="0" devices="tripinfo_62" vType="DEFAULT_VEHTYPE" speedFactor="1.00" vaporized=""/>
    <tripinfo id="64" depart="25712.00" departLane="747226803#1_0" departPos="5.10" departSpeed="0.00" departDelay="0.00" arrival="25842.00" arrivalLane="673254417#1_0" arrivalPos="136.45" arrivalSpeed="23.47" duration="130.00" routeLength="902.62" waitingTime="50.80" waitingCount="2" stopTime="0.00" timeLoss="87.05" rerouteNo="0" devices="tripinfo_64" vType="DEFAULT_VEHTYPE" speedFactor="0.88" vaporized=""/>
    <tripinfo id="67" depart="25736.00" departLane="-306641038_0" departPos="5.10" departSpeed="0.00" departDelay="0.00" arrival="25853.20" arrivalLane="1345417677_0" arrivalPos="49.14" arrivalSpeed="32.46" duration="117.20" routeLength="1604.08" waitingTime="11.20" waitingCount="1" stopTime="0.00" timeLoss="62.92" rerouteNo="0" devices="tripinfo_67" vType="DEFAULT_VEHTYPE" speedFactor="1.17" vaporized=""/>
    <tripinfo id="71" depart="25768.00" departLane="1267462152#0_0" departPos="5.10" departSpeed="0.00" departDelay="0.00" arrival="25853.20" arrivalLane="747226803#1_0" arrivalPos="112.47" arrivalSpeed="21.13" duration="85.20" routeLength="712.01" waitingTime="22.40" waitingCount="2" stopTime="0.00" timeLoss="56.96" rerouteNo="0" devices="tripinfo_71" vType="DEFAULT_VEHTYPE" speedFactor="1.00" vaporized=""/>
    <tripinfo id="56" depart="25648.00" departLane="193616433#1_0" departPos="5.10" departSpeed="0.00" departDelay="0.00" arrival="25854.40" arrivalLane="-673254417#0_0" arrivalPos="140.55" arrivalSpeed="25.46" duration="206.40" routeLength="2226.35" waitingTime="55.20" waitingCount="3" stopTime="0.00" timeLoss="129.18" rerouteNo="0" devices="tripinfo_56" vType="DEFAULT_VEHTYPE" speedFactor="1.09" vaporized=""/>
    <tripinfo id="68" depart="25744.00" departLane="-1345417678_0" departPos="5.10" departSpeed="0.00" departDelay="0.00" arrival="25881.20" arrivalLane="408153725_0" arrivalPos="21.76" arrivalSpeed="12.59" duration="137.20" routeLength="956.15" waitingTime="57.20" waitingCount="2" stopTime="0.00" timeLoss="91.90" rerouteNo="0" devices="tripinfo_68" vType="DEFAULT_VEHTYPE" speedFactor="1.02" vaporized=""/>
    <tripinfo id="74" depart="25792.00" departLane="1056903939_0" departPos="5.10" departSpeed="0.00" departDelay="0.00" arrival="25886.40" arrivalLane="1267462152#1_0" arrivalPos="48.21" arrivalSpeed="23.83" duration="94.40" routeLength="616.51" waitingTime="44.80" waitingCount="2" stopTime="0.00" timeLoss="68.43" rerouteNo="0" devices="tripinfo_74" vType="DEFAULT_VEHTYPE" speedFactor="0.90" vaporized=""/>
    <tripinfo id="83" depart="25864.00" departLane="1267006215_0" departPos="0.20" departSpeed="0.00" departDelay="0.00" arrival="25887.60" arrivalLane="326849846#0_0" arrivalPos="136.06" arrivalSpeed="23.37" duration="23.60" routeLength="290.40" waitingTime="0.00" waitingCount="0" stopTime="0.00" timeLoss="11.31" rerouteNo="0" devices="tripinfo_83" vType="DEFAULT_VEHTYPE" speedFactor="0.94" vaporized=""/>
    <tripinfo id="75" depart="25800.00" departLane="928038825#1_0" departPos="5.10" departSpeed="0.00" departDelay="0.00" arrival="25893.20" arrivalLane="326849845_0" arrivalPos="162.52" arrivalSpeed="31.35" duration="93.20" routeLength="599.60" waitingTime="46.40" waitingCount="2" stopTime="0.00" timeLoss="71.99" rerouteNo="0" devices="tripinfo_75" vType="DEFAULT_VEHTYPE" speedFactor="1.14" vaporized=""/>
    <tripinfo id="77" depart="25816.00" departLane="-35113196_0" departPos="5.10" departSpeed="0.00" departDelay="0.00" arrival="25900.00" arrivalLane="-747226804_0" arrivalPos="304.49" arrivalSpeed="21.07" duration="84.00" routeLength="1234.51" waitingTime="0.00" waitingCount="0" stopTime="0.00" timeLoss="29.68" rerouteNo="0" devices="tripinfo_77" vType="DEFAULT_VEHTYPE" speedFactor="0.97" vaporized=""/>
    <tripinfo id="88" depart="25904.00" departLane="-35112848_1" departPos="5.10" departSpeed="0.00" departDelay="0.00" arrival="25920.00" arrivalLane="1336695527_0" arrivalPos="16.79" arrivalSpeed="13.67" duration="16.00" routeLength="130.42" waitingTime="0.00" waitingCount="0" stopTime="0.00" timeLoss="8.07" rerouteNo="0" devices="tripinfo_88" vType="DEFAULT_VEHTYPE" speedFactor="1.04" vaporized=""/>
    <tripinfo id="80" depart="25843.60" departLane="-1345417678_0" departPos="5.10" departSpeed="0.00" departDelay="3.60" arrival="25927.60" arrivalLane="326770986_1" arrivalPos="56.77" arrivalSpeed="16.98" duration="84.00" routeLength="1030.13" waitingTime="9.60" waitingCount="1" stopTime="0.00" timeLoss="38.12" rerouteNo="0" devices="tripinfo_80" vType="DEFAULT_VEHTYPE" speedFactor="1.12" vaporized=""/>
    <tripinfo id="81" depart="25848.00" departLane="1162554504_0" departPos="5.10" departSpeed="0.00" departDelay="0.00" arrival="25939.60" arrivalLane="747226805#0_0" arrivalPos="87.59" arrivalSpeed="28.00" duration="91.60" routeLength="808.22" waitingTime="33.60" waitingCount="1" stopTime="0.00" timeLoss="58.95" rerouteNo="0" devices="tripinfo_81" vType="DEFAULT_VEHTYPE" speedFactor="1.02" vaporized=""/>
    <tripinfo id="82" depart="25856.00" departLane="747226803#0_0" departPos="3.73" departSpeed="0.00" departDelay="0.00" arrival="25968.80" arrivalLane="-1345417678_0" arrivalPos="5.61" arrivalSpeed="8.49" duration="112.80" routeLength="768.78" waitingTime="48.00" waitingCount="2" stopTime="0.00" timeLoss="77.24" rerouteNo="0" devices="tripinfo_82" vType="DEFAULT_VEHTYPE" speedFactor="0.99" vaporized=""/>
    <tripinfo id="84" depart="25872.00" departLane="1162554504_0" departPos="5.10" departSpeed="0.00" departDelay="0.00" arrival="25974.00" arrivalLane="-35113196_0" arrivalPos="91.35" arrivalSpeed="19.48" duration="102.00" routeLength="1229.76" waitingTime="0.00" waitingCount="0" stopTime="0.00" timeLoss="35.28" rerouteNo="0" devices="tripinfo_84" vType="DEFAULT_VEHTYPE" speedFactor="0.88" vaporized=""/>
    <tripinfo id="79" depart="25832.00" departLane="1162554504_0" departPos="5.10" departSpeed="0.00" departDelay="0.00" arrival="25983.60" arrivalLane="-747226804_0" arrivalPos="304.49" arrivalSpeed="23.93" duration="151.60" routeLength="1394.26" waitingTime="57.20" waitingCount="2" stopTime="0.00" timeLoss="96.87" rerouteNo="0" devices="tripinfo_79" vType="DEFAULT_VEHTYPE" speedFactor="1.08" vaporized=""/>
    <tripinfo id="92" depart="25936.00" departLane="1336695529_0" departPos="5.10" departSpeed="0.00" departDelay="0.00" arrival="26017.60" arrivalLane="1267462153_0" arrivalPos="27.26" arrivalSpeed="14.08" duration="81.60" routeLength="872.03" waitingTime="14.40" waitingCount="1" stopTime="0.00" timeLoss="40.09" rerouteNo="0" devices="tripinfo_92" vType="DEFAULT_VEHTYPE" speedFactor="1.02" vaporized=""/>
    <tripinfo id="86" depart="25888.00" departLane="193092895_0" departPos="5.10" departSpeed="0.00" departDelay="0.00" arrival="26023.60" arrivalLane="408845370_0" arrivalPos="171.86" arrivalSpeed="24.81" duration="135.60" routeLength="1140.69" waitingTime="65.60" waitingCount="2" stopTime="0.00" timeLoss="88.39" rerouteNo="0" devices="tripinfo_86" vType="DEFAULT_VEHTYPE" speedFactor="0.91" vaporized=""/>
    <tripinfo id="93" depart="25944.00" departLane="747226803#0_0" departPos="3.73" departSpeed="0.00" departDelay="0.00" arrival="26026.00" arrivalLane="1056903939_0" arrivalPos="104.50" arrivalSpeed="27.92" duration="82.00" routeLength="662.38" waitingTime="30.40" waitingCount="2" stopTime="0.00" timeLoss="55.64" rerouteNo="0" devices="tripinfo_93" vType="DEFAULT_VEHTYPE" speedFactor="1.02" vaporized=""/>