<?xml version="1.0" encoding="UTF-8"?>

<!-- generated on 2025-06-17 01:57:35 by Eclipse SUMO GUI Version 1.22.0
<sumoConfiguration xmlns:xsi="http://www.w3.org/2001/XMLSchema-instance" xsi:noNamespaceSchemaLocation="http://sumo.dlr.de/xsd/sumoConfiguration.xsd">

    <input>
        <net-file value="network/region_1.net.xml"/>
        <route-files value="routes/generated_routes.rou.xml"/>
        <additional-files value="additional/detectors_fixed.xml,additional/calibrator_fixed.xml"/>
    </input>

    <output>
        <queue-output value="output/queue.xml"/>
        <summary-output value="output/summary.xml"/>
        <tripinfo-output value="output/tripinfo.xml"/>
    </output>

    <time>
        <begin value="0"/>
        <end value="86400"/>
        <step-length value="0.4"/>
    </time>

    <processing>
        <time-to-teleport value="300"/>
    </processing>

    <report>
        <verbose value="true"/>
        <no-warnings value="false"/>
    </report>

</sumoConfiguration>
-->

<tripinfos xmlns:xsi="http://www.w3.org/2001/XMLSchema-instance" xsi:noNamespaceSchemaLocation="http://sumo.dlr.de/xsd/tripinfo_file.xsd">
    <tripinfo id="2" depart="25216.00" departLane="408845370_0" departPos="5.10" departSpeed="0.00" departDelay="0.00" arrival="25339.60" arrivalLane="326849846#1_0" arrivalPos="137.07" arrivalSpeed="13.19" duration="123.60" routeLength="860.23" waitingTime="43.20" waitingCount="1" stopTime="0.00" timeLoss="57.07" rerouteNo="0" devices="tripinfo_2" vType="DEFAULT_VEHTYPE" speedFactor="1.01" vaporized=""/>
    <tripinfo id="4" depart="25232.00" departLane="1345417676_0" departPos="5.10" departSpeed="0.00" departDelay="0.00" arrival="25342.00" arrivalLane="-1162554504_0" arrivalPos="100.68" arrivalSpeed="13.61" duration="110.00" routeLength="877.45" waitingTime="30.80" waitingCount="1" stopTime="0.00" timeLoss="45.85" rerouteNo="0" devices="tripinfo_4" vType="DEFAULT_VEHTYPE" speedFactor="1.03" vaporized=""/>
    <tripinfo id="9" depart="25272.00" departLane="673254417#1_0" departPos="5.10" departSpeed="0.00" departDelay="0.00" arrival="25346.00" arrivalLane="-1056903938_1" arrivalPos="51.44" arrivalSpeed="11.57" duration="74.00" routeLength="647.94" waitingTime="4.40" waitingCount="2" stopTime="0.00" timeLoss="16.69" rerouteNo="0" devices="tripinfo_9" vType="DEFAULT_VEHTYPE" speedFactor="0.89" vaporized=""/>
    <tripinfo id="0" depart="25200.00" departLane="35112983_1" departPos="5.10" departSpeed="0.00" departDelay="0.00" arrival="25348.00" arrivalLane="-1162554504_0" arrivalPos="100.68" arrivalSpeed="13.62" duration="148.00" routeLength="1339.58" waitingTime="28.00" waitingCount="2" stopTime="0.00" timeLoss="52.71" rerouteNo="0" devices="tripinfo_0" vType="DEFAULT_VEHTYPE" speedFactor="1.06" vaporized=""/>
    <tripinfo id="3" depart="25224.00" departLane="747226804_0" departPos="5.10" departSpeed="0.00" departDelay="0.00" arrival="25360.40" arrivalLane="-306641038_0" arrivalPos="240.45" arrivalSpeed="14.02" duration="136.40" routeLength="754.85" waitingTime="70.00" waitingCount="2" stopTime="0.00" timeLoss="82.92" rerouteNo="0" devices="tripinfo_3" vType="DEFAULT_VEHTYPE" speedFactor="1.08" vaporized=""/>
    <tripinfo id="6" depart="25248.00" departLane="-1267462153_0" departPos="5.10" departSpeed="0.00" departDelay="0.00" arrival="25394.00" arrivalLane="-673254417#1_0" arrivalPos="136.53" arrivalSpeed="13.50" duration="146.00" routeLength="629.70" waitingTime="78.40" waitingCount="3" stopTime="0.00" timeLoss="100.13" rerouteNo="0" devices="tripinfo_6" vType="DEFAULT_VEHTYPE" speedFactor="1.05" vaporized=""/>
    <tripinfo id="14" depart="25312.00" departLane="747226803#0_0" departPos="3.73" departSpeed="0.00" departDelay="0.00" arrival="25401.20" arrivalLane="306641038_0" arrivalPos="240.49" arrivalSpeed="14.11" duration="89.20" routeLength="399.70" waitingTime="52.40" waitingCount="2" stopTime="0.00" timeLoss="61.26" rerouteNo="0" devices="tripinfo_14" vType="DEFAULT_VEHTYPE" speedFactor="1.09" vaporized=""/>
    <tripinfo id="18" depart="25344.00" departLane="747226800_0" departPos="5.10" departSpeed="0.00" departDelay="0.00" arrival="25404.80" arrivalLane="326770986_1" arrivalPos="56.77" arrivalSpeed="14.64" duration="60.80" routeLength="812.16" waitingTime="0.00" waitingCount="0" stopTime="0.00" timeLoss="8.21" rerouteNo="0" devices="tripinfo_18" vType="DEFAULT_VEHTYPE" speedFactor="1.12" vaporized=""/>
    <tripinfo id="5" depart="25240.00" departLane="1162554504_0" departPos="5.10" departSpeed="0.00" departDelay="0.00" arrival="25427.20" arrivalLane="1345417678_0" arrivalPos="5.61" arrivalSpeed="10.76" duration="187.20" routeLength="1283.93" waitingTime="49.20" waitingCount="2" stopTime="0.00" timeLoss="71.22" rerouteNo="0" devices="tripinfo_5" vType="DEFAULT_VEHTYPE" speedFactor="0.83" vaporized=""/>
    <tripinfo id="12" depart="25296.00" departLane="749986989_0" departPos="5.10" departSpeed="0.00" departDelay="0.00" arrival="25430.40" arrivalLane="1267462153_0" arrivalPos="27.26" arrivalSpeed="11.17" duration="134.40" routeLength="1111.49" waitingTime="22.40" waitingCount="1" stopTime="0.00" timeLoss="36.55" rerouteNo="0" devices="tripinfo_12" vType="DEFAULT_VEHTYPE" speedFactor="0.86" vaporized=""/>
    <tripinfo id="16" depart="25328.00" departLane="193616433#2_0" departPos="5.10" departSpeed="0.00" departDelay="0.00" arrival="25435.60" arrivalLane="928038825#0_0" arrivalPos="124.05" arrivalSpeed="13.58" duration="107.60" routeLength="1250.11" waitingTime="0.00" waitingCount="0" stopTime="0.00" timeLoss="18.03" rerouteNo="0" devices="tripinfo_16" vType="DEFAULT_VEHTYPE" speedFactor="1.05" vaporized=""/>
    <tripinfo id="22" depart="25376.00" departLane="-306641038_0" departPos="5.10" departSpeed="0.00" departDelay="0.00" arrival="25441.20" arrivalLane="1056903939_0" arrivalPos="104.50" arrivalSpeed="12.29" duration="65.20" routeLength="691.56" waitingTime="0.00" waitingCount="0" stopTime="0.00" timeLoss="7.28" rerouteNo="0" devices="tripinfo_22" vType="DEFAULT_VEHTYPE" speedFactor="0.93" vaporized=""/>
    <tripinfo id="1" depart="25208.00" departLane="1267462152#1_0" departPos="5.10" departSpeed="0.00" departDelay="0.00" arrival="25453.60" arrivalLane="-747226804_0" arrivalPos="304.49" arrivalSpeed="12.04" duration="245.60" routeLength="1505.37" waitingTime="94.40" waitingCount="4" stopTime="0.00" timeLoss="121.97" rerouteNo="0" devices="tripinfo_1" vType="DEFAULT_VEHTYPE" speedFactor="0.94" vaporized=""/>
    <tripinfo id="29" depart="25432.00" departLane="-747226804_0" departPos="5.10" departSpeed="0.00" departDelay="0.00" arrival="25474.00" arrivalLane="1267653586#1_1" arrivalPos="171.81" arrivalSpeed="13.19" duration="42.00" routeLength="478.75" waitingTime="0.00" waitingCount="0" stopTime="0.00" timeLoss="5.63" rerouteNo="0" devices="tripinfo_29" vType="DEFAULT_VEHTYPE" speedFactor="1.01" vaporized=""/>
    <tripinfo id="21" depart="25368.00" departLane="1162554504_0" departPos="5.10" departSpeed="0.00" departDelay="0.00" arrival="25478.80" arrivalLane="1267462152#0_0" arrivalPos="66.60" arrivalSpeed="13.07" duration="110.80" routeLength="734.46" waitingTime="40.40" waitingCount="1" stopTime="0.00" timeLoss="53.56" rerouteNo="0" devices="tripinfo_21" vType="DEFAULT_VEHTYPE" speedFactor="0.99" vaporized=""/>
    <tripinfo id="15" depart="25320.00" departLane="673254417#0_0" departPos="5.10" departSpeed="0.00" departDelay="0.00" arrival="25485.20" arrivalLane="35112848_1" arrivalPos="26.95" arrivalSpeed="12.55" duration="165.20" routeLength="860.12" waitingTime="76.80" waitingCount="2" stopTime="0.00" timeLoss="99.13" rerouteNo="0" devices="tripinfo_15" vType="DEFAULT_VEHTYPE" speedFactor="1.03" vaporized=""/>
    <tripinfo id="10" depart="25280.00" departLane="673254417#0_0" departPos="5.10" departSpeed="0.00" departDelay="0.00" arrival="25486.80" arrivalLane="327074920_0" arrivalPos="163.44" arrivalSpeed="12.41" duration="206.80" routeLength="1169.33" waitingTime="93.60" waitingCount="2" stopTime="0.00" timeLoss="111.82" rerouteNo="0" devices="tripinfo_10" vType="DEFAULT_VEHTYPE" speedFactor="0.94" vaporized=""/>
    <tripinfo id="32" depart="25459.60" departLane="747226800_0" departPos="5.10" departSpeed="0.00" departDelay="3.60" arrival="25504.00" arrivalLane="408845370_1" arrivalPos="171.86" arrivalSpeed="11.44" duration="44.40" routeLength="479.10" waitingTime="0.00" waitingCount="0" stopTime="0.00" timeLoss="4.61" rerouteNo="0" devices="tripinfo_32" vType="DEFAULT_VEHTYPE" speedFactor="0.89" vaporized=""/>
    <tripinfo id="33" depart="25464.00" departLane="1162554504_0" departPos="5.10" departSpeed="0.00" departDelay="0.00" arrival="25515.20" arrivalLane="-1162554504_0" arrivalPos="100.68" arrivalSpeed="10.78" duration="51.20" routeLength="483.55" waitingTime="0.00" waitingCount="0" stopTime="0.00" timeLoss="7.22" rerouteNo="0" devices="tripinfo_33" vType="DEFAULT_VEHTYPE" speedFactor="0.83" vaporized=""/>
    <tripinfo id="28" depart="25424.00" departLane="-747226804_0" departPos="5.10" departSpeed="0.00" departDelay="0.00" arrival="25528.40" arrivalLane="35112848_1" arrivalPos="26.95" arrivalSpeed="12.39" duration="104.40" routeLength="1083.04" waitingTime="6.00" waitingCount="1" stopTime="0.00" timeLoss="23.69" rerouteNo="0" devices="tripinfo_28" vType="DEFAULT_VEHTYPE" speedFactor="1.02" vaporized=""/>
    <tripinfo id="37" depart="25496.00" departLane="35113196_0" departPos="5.10" departSpeed="0.00" departDelay="0.00" arrival="25532.00" arrivalLane="1267653586#2_1" arrivalPos="123.57" arrivalSpeed="14.90" duration="36.00" routeLength="400.99" waitingTime="0.00" waitingCount="0" stopTime="0.00" timeLoss="8.70" rerouteNo="0" devices="tripinfo_37" vType="DEFAULT_VEHTYPE" speedFactor="1.13" vaporized=""/>
    <tripinfo id="26" depart="25408.00" departLane="1267462152#0_0" departPos="5.10" departSpeed="0.00" departDelay="0.00" arrival="25533.60" arrivalLane="747226805#1_1" arrivalPos="85.07" arrivalSpeed="9.44" duration="125.60" routeLength="1097.87" waitingTime="10.00" waitingCount="2" stopTime="0.00" timeLoss="37.08" rerouteNo="0" devices="tripinfo_26" vType="DEFAULT_VEHTYPE" speedFactor="0.94" vaporized=""/>
    <tripinfo id="30" depart="25440.00" departLane="928038825#1_0" departPos="5.10" departSpeed="0.00" departDelay="0.00" arrival="25543.60" arrivalLane="326849845_1" arrivalPos="162.52" arrivalSpeed="12.02" duration="103.60" routeLength="599.60" waitingTime="42.80" waitingCount="2" stopTime="0.00" timeLoss="56.61" rerouteNo="0" devices="tripinfo_30" vType="DEFAULT_VEHTYPE" speedFactor="0.97" vaporized=""/>
    <tripinfo id="36" depart="25489.20" departLane="747226803#1_0" departPos="5.10" departSpeed="0.00" departDelay="1.20" arrival="25577.20" arrivalLane="1267462152#1_1" arrivalPos="48.21" arrivalSpeed="6.24" duration="88.00" routeLength="732.28" waitingTime="12.40" waitingCount="1" stopTime="0.00" timeLoss="28.83" rerouteNo="0" devices="tripinfo_36" vType="DEFAULT_VEHTYPE" speedFactor="0.95" vaporized=""/>
    <tripinfo id="24" depart="25392.00" departLane="35112983_1" departPos="5.10" departSpeed="0.00" departDelay="0.00" arrival="25590.40" arrivalLane="1267653586#0_2" arrivalPos="154.23" arrivalSpeed="12.25" duration="198.40" routeLength="1502.84" waitingTime="52.80" waitingCount="3" stopTime="0.00" timeLoss="78.12" rerouteNo="0" devices="tripinfo_24" vType="DEFAULT_VEHTYPE" speedFactor="0.94" vaporized=""/>
    <tripinfo id="27" depart="25416.00" departLane="35112983_1" departPos="5.10" departSpeed="0.00" departDelay="0.00" arrival="25595.20" arrivalLane="306641038_0" arrivalPos="240.49" arrivalSpeed="15.12" duration="179.20" routeLength="1592.82" waitingTime="38.80" waitingCount="1" stopTime="0.00" timeLoss="76.92" rerouteNo="0" devices="tripinfo_27" vType="DEFAULT_VEHTYPE" speedFactor="1.16" vaporized=""/>
    <tripinfo id="39" depart="25512.00" departLane="1267462152#0_0" departPos="5.10" departSpeed="0.00" departDelay="0.00" arrival="25596.00" arrivalLane="1056903939_0" arrivalPos="104.50" arrivalSpeed="15.63" duration="84.00" routeLength="897.46" waitingTime="11.60" waitingCount="1" stopTime="0.00" timeLoss="25.22" rerouteNo="0" devices="tripinfo_39" vType="DEFAULT_VEHTYPE" speedFactor="1.18" vaporized=""/>
    <tripinfo id="35" depart="25480.00" departLane="1056903939_0" departPos="5.10" departSpeed="0.00" departDelay="0.00" arrival="25608.40" arrivalLane="749986989_0" arrivalPos="138.45" arrivalSpeed="11.76" duration="128.40" routeLength="1385.25" waitingTime="0.00" waitingCount="0" stopTime="0.00" timeLoss="13.64" rerouteNo="0" devices="tripinfo_35" vType="DEFAULT_VEHTYPE" speedFactor="0.92" vaporized=""/>
    <tripinfo id="38" depart="25504.40" departLane="747226805#0_0" departPos="5.10" departSpeed="0.00" departDelay="0.40" arrival="25622.80" arrivalLane="1336695528_0" arrivalPos="10.81" arrivalSpeed="10.45" duration="118.40" routeLength="523.43" waitingTime="58.00" waitingCount="2" stopTime="0.00" timeLoss="76.04" rerouteNo="0" devices="tripinfo_38" vType="DEFAULT_VEHTYPE" speedFactor="0.93" vaporized=""/>
    <tripinfo id="34" depart="25472.00" departLane="1267653586#1_1" departPos="5.10" departSpeed="0.00" departDelay="0.00" arrival="25628.80" arrivalLane="1125370519_1" arrivalPos="30.65" arrivalSpeed="11.27" duration="156.80" routeLength="876.45" waitingTime="64.40" waitingCount="2" stopTime="0.00" timeLoss="82.39" rerouteNo="0" devices="tripinfo_34" vType="DEFAULT_VEHTYPE" speedFactor="0.87" vaporized=""/>
    <tripinfo id="53" depart="25624.00" departLane="-35112848_1" departPos="5.10" departSpeed="0.00" departDelay="0.00" arrival="25640.00" arrivalLane="1336695527_0" arrivalPos="16.79" arrivalSpeed="13.29" duration="16.00" routeLength="130.42" waitingTime="0.00" waitingCount="0" stopTime="0.00" timeLoss="4.82" rerouteNo="0" devices="tripinfo_53" vType="DEFAULT_VEHTYPE" speedFactor="1.03" vaporized=""/>
    <tripinfo id="40" depart="25520.00" departLane="326849845_0" departPos="5.10" departSpeed="0.00" departDelay="0.00" arrival="25659.60" arrivalLane="1125370519_1" arrivalPos="30.65" arrivalSpeed="12.73" duration="139.60" routeLength="1027.02" waitingTime="54.40" waitingCount="2" stopTime="0.00" timeLoss="72.68" rerouteNo="0" devices="tripinfo_40" vType="DEFAULT_VEHTYPE" speedFactor="1.15" vaporized=""/>
    <tripinfo id="23" depart="25384.00" departLane="-35112848_1" departPos="5.10" departSpeed="0.00" departDelay="0.00" arrival="25662.40" arrivalLane="1162554504_0" arrivalPos="100.63" arrivalSpeed="11.40" duration="278.40" routeLength="1657.87" waitingTime="101.20" waitingCount="5" stopTime="0.00" timeLoss="132.57" rerouteNo="0" devices="tripinfo_23" vType="DEFAULT_VEHTYPE" speedFactor="0.88" vaporized=""/>
    <tripinfo id="47" depart="25576.00" departLane="-1345417678_0" departPos="5.10" departSpeed="0.00" departDelay="0.00" arrival="25680.00" arrivalLane="1267653586#1_1" arrivalPos="171.81" arrivalSpeed="12.82" duration="104.00" routeLength="646.21" waitingTime="45.20" waitingCount="1" stopTime="0.00" timeLoss="53.26" rerouteNo="0" devices="tripinfo_47" vType="DEFAULT_VEHTYPE" speedFactor="0.97" vaporized=""/>
    <tripinfo id="59" depart="25672.00" departLane="326849846#1_0" departPos="5.10" departSpeed="0.00" departDelay="0.00" arrival="25707.20" arrivalLane="-35113249_1" arrivalPos="57.21" arrivalSpeed="13.94" duration="35.20" routeLength="417.80" waitingTime="0.00" waitingCount="0" stopTime="0.00" timeLoss="6.55" rerouteNo="0" devices="tripinfo_59" vType="DEFAULT_VEHTYPE" speedFactor="1.09" vaporized=""/>
    <tripinfo id="49" depart="25592.00" departLane="928038825#0_0" departPos="5.10" departSpeed="0.00" departDelay="0.00" arrival="25708.00" arrivalLane="747226800_0" arrivalPos="125.95" arrivalSpeed="15.19" duration="116.00" routeLength="561.33" waitingTime="63.20" waitingCount="2" stopTime="0.00" timeLoss="79.20" rerouteNo="0" devices="tripinfo_49" vType="DEFAULT_VEHTYPE" speedFactor="1.18" vaporized=""/>
    <tripinfo id="42" depart="25536.00" departLane="1336695529_0" departPos="5.10" departSpeed="0.00" departDelay="0.00" arrival="25719.20" arrivalLane="-747226804_0" arrivalPos="304.49" arrivalSpeed="15.16" duration="183.20" routeLength="1500.53" waitingTime="59.60" waitingCount="3" stopTime="0.00" timeLoss="85.62" rerouteNo="0" devices="tripinfo_42" vType="DEFAULT_VEHTYPE" speedFactor="1.17" vaporized=""/>
    <tripinfo id="41" depart="25529.20" departLane="326849846#0_0" departPos="5.10" departSpeed="0.00" departDelay="1.20" arrival="25745.60" arrivalLane="747226804_0" arrivalPos="304.57" arrivalSpeed="7.95" duration="216.40" routeLength="1406.00" waitingTime="67.60" waitingCount="4" stopTime="0.00" timeLoss="107.86" rerouteNo="0" devices="tripinfo_41" vType="DEFAULT_VEHTYPE" speedFactor="1.01" vaporized=""/>
    <tripinfo id="45" depart="25560.00" departLane="-35112848_1" departPos="5.10" departSpeed="0.00" departDelay="0.00" arrival="25748.40" arrivalLane="326770986_0" arrivalPos="56.77" arrivalSpeed="13.35" duration="188.40" routeLength="1125.99" waitingTime="76.00" waitingCount="4" stopTime="0.00" timeLoss="104.00" rerouteNo="0" devices="tripinfo_45" vType="DEFAULT_VEHTYPE" speedFactor="1.02" vaporized=""/>
    <tripinfo id="50" depart="25600.00" departLane="-1162554504_0" departPos="5.10" departSpeed="0.00" departDelay="0.00" arrival="25755.20" arrivalLane="35112848_1" arrivalPos="26.95" arrivalSpeed="12.11" duration="155.20" routeLength="1151.89" waitingTime="42.00" waitingCount="3" stopTime="0.00" timeLoss="72.74" rerouteNo="0" devices="tripinfo_50" vType="DEFAULT_VEHTYPE" speedFactor="1.10" vaporized=""/>
    <tripinfo id="57" depart="25656.00" departLane="747226805#0_0" departPos="5.10" departSpeed="0.00" departDelay="0.00" arrival="25765.20" arrivalLane="747226803#1_0" arrivalPos="112.47" arrivalSpeed="13.31" duration="109.20" routeLength="1086.43" waitingTime="6.80" waitingCount="2" stopTime="0.00" timeLoss="30.21" rerouteNo="0" devices="tripinfo_57" vType="DEFAULT_VEHTYPE" speedFactor="1.04" vaporized=""/>
    <tripinfo id="43" depart="25544.00" departLane="928038825#1_0" departPos="5.10" departSpeed="0.00" departDelay="0.00" arrival="25767.60" arrivalLane="1345417678_0" arrivalPos="5.61" arrivalSpeed="12.74" duration="223.60" routeLength="1400.66" waitingTime="91.20" waitingCount="4" stopTime="0.00" timeLoss="117.72" rerouteNo="0" devices="tripinfo_43" vType="DEFAULT_VEHTYPE" speedFactor="0.99" vaporized=""/>
    <tripinfo id="70" depart="25760.00" departLane="193092895_0" departPos="5.10" departSpeed="0.00" departDelay="0.00" arrival="25770.00" arrivalLane="193616433#0_0" arrivalPos="62.58" arrivalSpeed="13.09" duration="10.00" routeLength="86.46" waitingTime="0.00" waitingCount="0" stopTime="0.00" timeLoss="3.75" rerouteNo="0" devices="tripinfo_70" vType="DEFAULT_VEHTYPE" speedFactor="1.00" vaporized=""/>
    <tripinfo id="65" depart="25720.00" departLane="1267653586#0_1" departPos="5.10" departSpeed="0.00" departDelay="0.00" arrival="25790.80" arrivalLane="-1345417678_0" arrivalPos="5.61" arrivalSpeed="7.29" duration="70.80" routeLength="615.00" waitingTime="0.80" waitingCount="1" stopTime="0.00" timeLoss="14.66" rerouteNo="0" devices="tripinfo_65" vType="DEFAULT_VEHTYPE" speedFactor="0.85" vaporized=""/>
    <tripinfo id="55" depart="25640.00" departLane="747226803#1_0" departPos="5.10" departSpeed="0.00" departDelay="0.00" arrival="25796.40" arrivalLane="1125370519_1" arrivalPos="30.65" arrivalSpeed="12.13" duration="156.40" routeLength="812.84" waitingTime="71.20" waitingCount="2" stopTime="0.00" timeLoss="91.61" rerouteNo="0" devices="tripinfo_55" vType="DEFAULT_VEHTYPE" speedFactor="0.96" vaporized=""/>
    <tripinfo id="69" depart="25752.00" departLane="58871347_1" departPos="2.30" departSpeed="0.00" departDelay="0.00" arrival="25808.40" arrivalLane="-35113196_0" arrivalPos="91.35" arrivalSpeed="14.50" duration="56.40" routeLength="265.06" waitingTime="32.40" waitingCount="1" stopTime="0.00" timeLoss="37.44" rerouteNo="0" devices="tripinfo_69" vType="DEFAULT_VEHTYPE" speedFactor="1.10" vaporized=""/>
    <tripinfo id="58" depart="25664.00" departLane="1267653586#0_1" departPos="5.10" departSpeed="0.00" departDelay="0.00" arrival="25811.60" arrivalLane="326849845_0" arrivalPos="162.52" arrivalSpeed="13.64" duration="147.60" routeLength="1065.41" waitingTime="48.80" waitingCount="2" stopTime="0.00" timeLoss="68.77" rerouteNo="0" devices="tripinfo_58" vType="DEFAULT_VEHTYPE" speedFactor="1.04" vaporized=""/>
    <tripinfo id="52" depart="25616.00" departLane="1267462152#0_0" departPos="5.10" departSpeed="0.00" departDelay="0.00" arrival="25814.40" arrivalLane="326849845_1" arrivalPos="162.52" arrivalSpeed="11.48" duration="198.40" routeLength="1592.63" waitingTime="41.60" waitingCount="2" stopTime="0.00" timeLoss="63.58" rerouteNo="0" devices="tripinfo_52" vType="DEFAULT_VEHTYPE" speedFactor="0.90" vaporized=""/>
    <tripinfo id="76" depart="25808.00" departLane="1345417677_0" departPos="5.10" departSpeed="0.00" departDelay="0.00" arrival="25816.00" arrivalLane="1345417678_0" arrivalPos="5.61" arrivalSpeed="13.16" duration="8.00" routeLength="58.74" waitingTime="0.00" waitingCount="0" stopTime="0.00" timeLoss="3.77" rerouteNo="0" devices="tripinfo_76" vType="DEFAULT_VEHTYPE" speedFactor="1.02" vaporized=""/>
    <tripinfo id="63" depart="25704.00" departLane="-1267462153_0" departPos="5.10" departSpeed="0.00" departDelay="0.00" arrival="25816.40" arrivalLane="747226805#1_0" arrivalPos="85.07" arrivalSpeed="11.45" duration="112.40" routeLength="833.07" waitingTime="30.00" waitingCount="1" stopTime="0.00" timeLoss="43.12" rerouteNo="0" devices="tripinfo_63" vType="DEFAULT_VEHTYPE" speedFactor="0.90" vaporized=""/>
    <tripinfo id="62" depart="25696.00" departLane="-1162554504_0" departPos="5.10" departSpeed="0.00" departDelay="0.00" arrival="25843.60" arrivalLane="1267462152#1_0" arrivalPos="48.21" arrivalSpeed="13.00" duration="147.60" routeLength="1176.78" waitingTime="35.60" waitingCount="2" stopTime="0.00" timeLoss="55.88" rerouteNo="0" devices="tripinfo_62" vType="DEFAULT_VEHTYPE" speedFactor="1.00" vaporized=""/>
    <tripinfo id="64" depart="25712.00" departLane="747226803#1_0" departPos="5.10" departSpeed="0.00" departDelay="0.00" arrival="25845.60" arrivalLane="673254417#1_0" arrivalPos="136.45" arrivalSpeed="11.30" duration="133.60" routeLength="902.62" waitingTime="38.00" waitingCount="2" stopTime="0.00" timeLoss="55.28" rerouteNo="0" devices="tripinfo_64" vType="DEFAULT_VEHTYPE" speedFactor="0.88" vaporized=""/>
    <tripinfo id="66" depart="25728.00" departLane="747226803#1_0" departPos="5.10" departSpeed="0.00" departDelay="0.00" arrival="25846.40" arrivalLane="749986989_0" arrivalPos="138.45" arrivalSpeed="11.12" duration="118.40" routeLength="676.17" waitingTime="47.20" waitingCount="1" stopTime="0.00" timeLoss="58.03" rerouteNo="0" devices="tripinfo_66" vType="DEFAULT_VEHTYPE" speedFactor="0.85" vaporized=""/>
    <tripinfo id="71" depart="25770.40" departLane="1267462152#0_0" departPos="5.10" departSpeed="0.00" departDelay="2.40" arrival="25856.00" arrivalLane="747226803#1_0" arrivalPos="112.47" arrivalSpeed="12.89" duration="85.60" routeLength="712.01" waitingTime="12.00" waitingCount="1" stopTime="0.00" timeLoss="31.54" rerouteNo="0" devices="tripinfo_71" vType="DEFAULT_VEHTYPE" speedFactor="1.00" vaporized=""/>
    <tripinfo id="67" depart="25736.00" departLane="-306641038_0" departPos="5.10" departSpeed="0.00" departDelay="0.00" arrival="25867.20" arrivalLane="1345417677_0" arrivalPos="49.14" arrivalSpeed="15.48" duration="131.20" routeLength="1604.08" waitingTime="0.40" waitingCount="1" stopTime="0.00" timeLoss="26.95" rerouteNo="0" devices="tripinfo_67" vType="DEFAULT_VEHTYPE" speedFactor="1.17" vaporized=""/>
    <tripinfo id="68" depart="25744.00" departLane="-1345417678_0" departPos="5.10" departSpeed="0.00" departDelay="0.00" arrival="25881.20" arrivalLane="408153725_0" arrivalPos="21.76" arrivalSpeed="13.42" duration="137.20" routeLength="956.15" waitingTime="42.80" waitingCount="2" stopTime="0.00" timeLoss="65.69" rerouteNo="0" devices="tripinfo_68" vType="DEFAULT_VEHTYPE" speedFactor="1.02" vaporized=""/>
    <tripinfo id="74" depart="25792.00" departLane="1056903939_0" departPos="5.10" departSpeed="0.00" departDelay="0.00" arrival="25890.40" arrivalLane="1267462152#1_0" arrivalPos="48.21" arrivalSpeed="11.54" duration="98.40" routeLength="616.51" waitingTime="33.60" waitingCount="2" stopTime="0.00" timeLoss="48.33" rerouteNo="0" devices="tripinfo_74" vType="DEFAULT_VEHTYPE" speedFactor="0.90" vaporized=""/>
    <tripinfo id="83" depart="25864.00" departLane="1267006215_0" departPos="0.20" departSpeed="0.00" departDelay="0.00" arrival="25892.40" arrivalLane="326849846#0_0" arrivalPos="136.06" arrivalSpeed="12.25" duration="28.40" routeLength="290.40" waitingTime="0.00" waitingCount="0" stopTime="0.00" timeLoss="4.90" rerouteNo="0" devices="tripinfo_83" vType="DEFAULT_VEHTYPE" speedFactor="0.94" vaporized=""/>
    <tripinfo id="75" depart="25800.00" departLane="928038825#1_0" departPos="5.10" departSpeed="0.00" departDelay="0.00" arrival="25899.60" arrivalLane="326849845_0" arrivalPos="162.52" arrivalSpeed="14.91" duration="99.60" routeLength="594.42" waitingTime="46.00" waitingCount="2" stopTime="0.00" timeLoss="59.73" rerouteNo="0" devices="tripinfo_75" vType="DEFAULT_VEHTYPE" speedFactor="1.14" vaporized=""/>
    <tripinfo id="88" depart="25904.00" departLane="-35112848_1" departPos="5.10" departSpeed="0.00" departDelay="0.00" arrival="25920.00" arrivalLane="1336695527_0" arrivalPos="16.79" arrivalSpeed="13.60" duration="16.00" routeLength="130.42" waitingTime="0.00" waitingCount="0" stopTime="0.00" timeLoss="4.79" rerouteNo="0" devices="tripinfo_88" vType="DEFAULT_VEHTYPE" speedFactor="1.04" vaporized=""/>
    <tripinfo id="80" depart="25840.00" departLane="-1345417678_0" departPos="5.10" departSpeed="0.00" departDelay="0.00" arrival="25928.40" arrivalLane="326770986_1" arrivalPos="56.77" arrivalSpeed="14.86" duration="88.40" routeLength="1030.13" waitingTime="2.40" waitingCount="1" stopTime="0.00" timeLoss="19.11" rerouteNo="0" devices="tripinfo_80" vType="DEFAULT_VEHTYPE" speedFactor="1.12" vaporized=""/>
    <tripinfo id="56" depart="25648.00" departLane="193616433#1_0" departPos="5.10" departSpeed="0.00" departDelay="0.00" arrival="25944.40" arrivalLane="-673254417#0_0" arrivalPos="140.55" arrivalSpeed="14.48" duration="296.40" routeLength="2226.35" waitingTime="91.60" waitingCount="7" stopTime="0.00" timeLoss="146.32" rerouteNo="0" devices="tripinfo_56" vType="DEFAULT_VEHTYPE" speedFactor="1.09" vaporized=""/>
    <tripinfo id="81" depart="25848.00" departLane="1162554504_0" departPos="5.10" departSpeed="0.00" departDelay="0.00" arrival="25952.40" arrivalLane="747226805#0_0" arrivalPos="87.59" arrivalSpeed="13.32" duration="104.40" routeLength="808.22" waitingTime="27.60" waitingCount="1" stopTime="0.00" timeLoss="44.47" rerouteNo="0" devices="tripinfo_81" vType="DEFAULT_VEHTYPE" speedFactor="1.02" vaporized=""/>
    <tripinfo id="82" depart="25856.00" departLane="747226803#0_0" departPos="3.73" departSpeed="0.00" departDelay="0.00" arrival="25968.40" arrivalLane="-1345417678_0" arrivalPos="5.61" arrivalSpeed="8.00" duration="112.40" routeLength="768.78" waitingTime="38.80" waitingCount="2" stopTime="0.00" timeLoss="52.72" rerouteNo="0" devices="tripinfo_82" vType="DEFAULT_VEHTYPE" speedFactor="0.99" vaporized=""/>
    <tripinfo id="77" depart="25816.00" departLane="-35113196_0" departPos="5.10" departSpeed="0.00" departDelay="0.00" arrival="25992.80" arrivalLane="-747226804_0" arrivalPos="304.49" arrivalSpeed="12.42" duration="176.80" routeLength="1234.51" waitingTime="62.00" waitingCount="2" stopTime="0.00" timeLoss="79.51" rerouteNo="0" devices="tripinfo_77" vType="DEFAULT_VEHTYPE" speedFactor="0.97" vaporized=""/>
    <tripinfo id="79" depart="25832.00" departLane="1162554504_0" departPos="5.10" departSpeed="0.00" departDelay="0.00" arrival="25994.40" arrivalLane="-747226804_0" arrivalPos="304.49" arrivalSpeed="14.29" duration="162.40" routeLength="1394.26" waitingTime="47.20" waitingCount="1" stopTime="0.00" timeLoss="64.18" rerouteNo="0" devices="tripinfo_79" vType="DEFAULT_VEHTYPE" speedFactor="1.08" vaporized=""/>
    <tripinfo id="103" depart="26024.00" departLane="1336695529_0" departPos="5.10" departSpeed="0.00" departDelay="0.00" arrival="26031.20" arrivalLane="-1345417678_0" arrivalPos="5.61" arrivalSpeed="12.91" duration="7.20" routeLength="54.75" waitingTime="0.00" waitingCount="0" stopTime="0.00" timeLoss="3.30" rerouteNo="0" devices="tripinfo_103" vType="DEFAULT_VEHTYPE" speedFactor="0.98" vaporized=""/>
    <tripinfo id="93" depart="25944.00" departLane="747226803#0_0" departPos="3.73" departSpeed="0.00" departDelay="0.00" arrival="26032.80" arrivalLane="1056903939_0" arrivalPos="104.50" arrivalSpeed="13.39" duration="88.80" routeLength="662.38" waitingTime="27.20" waitingCount="2" stopTime="0.00" timeLoss="39.93" rerouteNo="0" devices="tripinfo_93" vType="DEFAULT_VEHTYPE" speedFactor="1.02" vaporized=""/>
    <tripinfo id="86" depart="25888.00" departLane="193092895_0" departPos="5.10" departSpeed="0.00" departDelay="0.00" arrival="26043.20" arrivalLane="408845370_0" arrivalPos="171.86" arrivalSpeed="11.83" duration="155.20" routeLength="1140.69" waitingTime="45.60" waitingCount="2" stopTime="0.00" timeLoss="64.02" rerouteNo="0" devices="tripinfo_86" vType="DEFAULT_VEHTYPE" speedFactor="0.91" vaporized=""/>
    <tripinfo id="100" depart="26000.00" departLane="928038825#0_0" departPos="5.10" departSpeed="0.00" departDelay="0.00" arrival="26051.60" arrivalLane="747226805#1_1" arrivalPos="85.07" arrivalSpeed="12.79" duration="51.60" routeLength="582.50" waitingTime="0.00" waitingCount="0" stopTime="0.00" timeLoss="7.93" rerouteNo="0" devices="tripinfo_100" vType="DEFAULT_VEHTYPE" speedFactor="0.98" vaporized=""/>